<?xml version="1.0" encoding="UTF-8"?>

<!-- generated on 2024-09-11 16:31:28 by Eclipse SUMO sumo Version 1.20.0
<configuration xmlns:xsi="http://www.w3.org/2001/XMLSchema-instance" xsi:noNamespaceSchemaLocation="http://sumo.dlr.de/xsd/sumoConfiguration.xsd">

    <input>
        <net-file value="maps/city1.net.xml"/>
        <route-files value="maps/city1.rou.xml"/>
    </input>

    <output>
        <tripinfo-output value="tripinfo.xml"/>
    </output>

    <time>
        <begin value="0"/>
        <end value="200"/>
    </time>

    <report>
        <verbose value="true"/>
        <no-step-log value="true"/>
    </report>

    <traci_server>
        <remote-port value="51200"/>
    </traci_server>

</configuration>
-->

<tripinfos xmlns:xsi="http://www.w3.org/2001/XMLSchema-instance" xsi:noNamespaceSchemaLocation="http://sumo.dlr.de/xsd/tripinfo_file.xsd">
    <tripinfo id="13" depart="13.00" departLane="-gneE14_0" departPos="5.10" departSpeed="0.00" departDelay="0.00" arrival="23.00" arrivalLane="-gneE14_0" arrivalPos="89.60" arrivalSpeed="14.27" duration="10.00" routeLength="84.50" waitingTime="0.00" waitingCount="0" stopTime="0.00" timeLoss="3.61" rerouteNo="0" devices="tripinfo_13" vType="DEFAULT_VEHTYPE" speedFactor="1.09" vaporized=""/>
    <tripinfo id="17" depart="17.00" departLane="-gneE36_0" departPos="5.10" departSpeed="0.00" departDelay="0.00" arrival="78.00" arrivalLane="gneE12_0" arrivalPos="85.60" arrivalSpeed="15.27" duration="61.00" routeLength="687.49" waitingTime="3.00" waitingCount="1" stopTime="0.00" timeLoss="16.14" rerouteNo="0" devices="tripinfo_17" vType="DEFAULT_VEHTYPE" speedFactor="1.12" vaporized=""/>
    <tripinfo id="56" depart="56.00" departLane="gneE0_0" departPos="5.10" departSpeed="0.00" departDelay="0.00" arrival="85.00" arrivalLane="-gneE20_0" arrivalPos="92.80" arrivalSpeed="14.06" duration="29.00" routeLength="284.16" waitingTime="0.00" waitingCount="0" stopTime="0.00" timeLoss="8.42" rerouteNo="0" devices="tripinfo_56" vType="DEFAULT_VEHTYPE" speedFactor="1.09" vaporized=""/>
    <tripinfo id="19" depart="19.00" departLane="gneE35_0" departPos="5.10" departSpeed="0.00" departDelay="0.00" arrival="86.00" arrivalLane="gneE13_0" arrivalPos="92.80" arrivalSpeed="13.69" duration="67.00" routeLength="789.32" waitingTime="0.00" waitingCount="0" stopTime="0.00" timeLoss="8.19" rerouteNo="0" devices="tripinfo_19" vType="DEFAULT_VEHTYPE" speedFactor="0.99" vaporized=""/>
    <tripinfo id="52" depart="52.00" departLane="-gneE29_0" departPos="5.10" departSpeed="0.00" departDelay="0.00" arrival="89.00" arrivalLane="gneE21_0" arrivalPos="87.62" arrivalSpeed="15.29" duration="37.00" routeLength="413.15" waitingTime="0.00" waitingCount="0" stopTime="0.00" timeLoss="8.75" rerouteNo="0" devices="tripinfo_52" vType="DEFAULT_VEHTYPE" speedFactor="1.10" vaporized=""/>
    <tripinfo id="90" depart="90.00" departLane="gneE23_0" departPos="5.10" departSpeed="0.00" departDelay="0.00" arrival="100.00" arrivalLane="gneE23_0" arrivalPos="89.60" arrivalSpeed="14.11" duration="10.00" routeLength="84.50" waitingTime="0.00" waitingCount="0" stopTime="0.00" timeLoss="3.33" rerouteNo="0" devices="tripinfo_90" vType="DEFAULT_VEHTYPE" speedFactor="1.02" vaporized=""/>
    <tripinfo id="85" depart="85.00" departLane="gneE5_0" departPos="5.10" departSpeed="0.00" departDelay="0.00" arrival="113.00" arrivalLane="gneE13_0" arrivalPos="92.80" arrivalSpeed="12.59" duration="28.00" routeLength="287.49" waitingTime="0.00" waitingCount="0" stopTime="0.00" timeLoss="4.67" rerouteNo="0" devices="tripinfo_85" vType="DEFAULT_VEHTYPE" speedFactor="0.94" vaporized=""/>
    <tripinfo id="138" depart="138.00" departLane="-gneE17_0" departPos="5.10" departSpeed="0.00" departDelay="0.00" arrival="163.00" arrivalLane="gneE12_0" arrivalPos="85.60" arrivalSpeed="13.98" duration="25.00" routeLength="187.49" waitingTime="2.00" waitingCount="1" stopTime="0.00" timeLoss="10.72" rerouteNo="0" devices="tripinfo_138" vType="DEFAULT_VEHTYPE" speedFactor="1.01" vaporized=""/>
    <tripinfo id="164" depart="164.00" departLane="gneE3_0" departPos="5.10" departSpeed="0.00" departDelay="0.00" arrival="192.00" arrivalLane="gneE34_0" arrivalPos="85.60" arrivalSpeed="8.43" duration="28.00" routeLength="280.29" waitingTime="0.00" waitingCount="0" stopTime="0.00" timeLoss="8.86" rerouteNo="0" devices="tripinfo_164" vType="DEFAULT_VEHTYPE" speedFactor="1.10" vaporized=""/>
    <tripinfo id="161" depart="161.00" departLane="gneE3_0" departPos="5.10" departSpeed="0.00" departDelay="0.00" arrival="215.00" arrivalLane="gneE36_0" arrivalPos="292.80" arrivalSpeed="13.58" duration="54.00" routeLength="582.12" waitingTime="0.00" waitingCount="0" stopTime="0.00" timeLoss="9.88" rerouteNo="0" devices="tripinfo_161" vType="DEFAULT_VEHTYPE" speedFactor="0.99" vaporized=""/>
    <tripinfo id="184" depart="184.00" departLane="-gneE1_0" departPos="5.10" departSpeed="0.00" departDelay="0.00" arrival="224.00" arrivalLane="gneE5_0" arrivalPos="85.60" arrivalSpeed="16.46" duration="40.00" routeLength="469.76" waitingTime="0.00" waitingCount="0" stopTime="0.00" timeLoss="10.77" rerouteNo="0" devices="tripinfo_184" vType="DEFAULT_VEHTYPE" speedFactor="1.23" vaporized=""/>
    <tripinfo id="182" depart="182.00" departLane="-gneE36_0" departPos="5.10" departSpeed="0.00" departDelay="0.00" arrival="253.00" arrivalLane="gneE13_0" arrivalPos="92.80" arrivalSpeed="13.24" duration="71.00" routeLength="794.48" waitingTime="0.00" waitingCount="0" stopTime="0.00" timeLoss="8.78" rerouteNo="0" devices="tripinfo_182" vType="DEFAULT_VEHTYPE" speedFactor="0.96" vaporized=""/>
    <tripinfo id="127" depart="129.00" departLane="gneE9_0" departPos="5.10" departSpeed="0.00" departDelay="2.00" arrival="276.00" arrivalLane="gneE9_0" arrivalPos="89.60" arrivalSpeed="7.17" duration="147.00" routeLength="84.50" waitingTime="131.00" waitingCount="1" stopTime="0.00" timeLoss="140.21" rerouteNo="0" devices="tripinfo_127" vType="DEFAULT_VEHTYPE" speedFactor="0.91" vaporized=""/>
    <tripinfo id="104" depart="104.00" departLane="-gneE36_0" departPos="5.10" departSpeed="0.00" departDelay="0.00" arrival="281.00" arrivalLane="gneE9_0" arrivalPos="89.60" arrivalSpeed="7.14" duration="177.00" routeLength="978.40" waitingTime="88.00" waitingCount="1" stopTime="0.00" timeLoss="110.30" rerouteNo="0" devices="tripinfo_104" vType="DEFAULT_VEHTYPE" speedFactor="1.09" vaporized=""/>
    <tripinfo id="240" depart="240.00" departLane="-gneE36_0" departPos="5.10" departSpeed="0.00" departDelay="0.00" arrival="300.00" arrivalLane="-gneE0_0" arrivalPos="92.80" arrivalSpeed="13.82" duration="60.00" routeLength="689.32" waitingTime="0.00" waitingCount="0" stopTime="0.00" timeLoss="9.01" rerouteNo="0" devices="tripinfo_240" vType="DEFAULT_VEHTYPE" speedFactor="1.00" vaporized=""/>
    <tripinfo id="302" depart="302.00" departLane="gneE21_0" departPos="5.10" departSpeed="0.00" departDelay="0.00" arrival="312.00" arrivalLane="gneE21_0" arrivalPos="87.62" arrivalSpeed="13.74" duration="10.00" routeLength="82.52" waitingTime="0.00" waitingCount="0" stopTime="0.00" timeLoss="3.55" rerouteNo="0" devices="tripinfo_302" vType="DEFAULT_VEHTYPE" speedFactor="1.00" vaporized=""/>
    <tripinfo id="141" depart="144.00" departLane="gneE18_0" departPos="5.10" departSpeed="0.00" departDelay="3.00" arrival="314.00" arrivalLane="-gneE25_0" arrivalPos="92.80" arrivalSpeed="8.12" duration="170.00" routeLength="284.16" waitingTime="129.00" waitingCount="1" stopTime="0.00" timeLoss="146.68" rerouteNo="0" devices="tripinfo_141" vType="DEFAULT_VEHTYPE" speedFactor="0.96" vaporized=""/>
    <tripinfo id="20" depart="20.00" departLane="gneE22_0" departPos="5.10" departSpeed="0.00" departDelay="0.00" arrival="315.00" arrivalLane="-gneE10_0" arrivalPos="96.80" arrivalSpeed="12.22" duration="295.00" routeLength="579.33" waitingTime="236.00" waitingCount="1" stopTime="0.00" timeLoss="248.93" rerouteNo="0" devices="tripinfo_20" vType="DEFAULT_VEHTYPE" speedFactor="0.93" vaporized=""/>
    <tripinfo id="146" depart="147.00" departLane="gneE18_0" departPos="5.10" departSpeed="0.00" departDelay="1.00" arrival="316.00" arrivalLane="-gneE25_0" arrivalPos="92.80" arrivalSpeed="8.80" duration="169.00" routeLength="284.16" waitingTime="129.00" waitingCount="1" stopTime="0.00" timeLoss="148.37" rerouteNo="0" devices="tripinfo_146" vType="DEFAULT_VEHTYPE" speedFactor="1.10" vaporized=""/>
    <tripinfo id="53" depart="53.00" departLane="-gneE18_0" departPos="5.10" departSpeed="0.00" departDelay="0.00" arrival="319.00" arrivalLane="-gneE5_0" arrivalPos="85.60" arrivalSpeed="6.14" duration="266.00" routeLength="275.23" waitingTime="233.00" waitingCount="1" stopTime="0.00" timeLoss="242.75" rerouteNo="0" devices="tripinfo_53" vType="DEFAULT_VEHTYPE" speedFactor="0.90" vaporized=""/>
    <tripinfo id="47" depart="50.00" departLane="-gneE13_0" departPos="5.10" departSpeed="0.00" departDelay="3.00" arrival="332.00" arrivalLane="-gneE38_0" arrivalPos="296.80" arrivalSpeed="16.22" duration="282.00" routeLength="490.87" waitingTime="232.00" waitingCount="1" stopTime="0.00" timeLoss="250.18" rerouteNo="0" devices="tripinfo_47" vType="DEFAULT_VEHTYPE" speedFactor="1.17" vaporized=""/>
    <tripinfo id="321" depart="325.00" departLane="gneE21_0" departPos="5.10" departSpeed="0.00" departDelay="4.00" arrival="353.00" arrivalLane="-gneE18_0" arrivalPos="92.80" arrivalSpeed="13.40" duration="28.00" routeLength="284.35" waitingTime="0.00" waitingCount="0" stopTime="0.00" timeLoss="5.77" rerouteNo="0" devices="tripinfo_321" vType="DEFAULT_VEHTYPE" speedFactor="0.97" vaporized=""/>
    <tripinfo id="25" depart="25.00" departLane="-gneE34_0" departPos="5.10" departSpeed="0.00" departDelay="0.00" arrival="361.00" arrivalLane="-gneE22_0" arrivalPos="85.60" arrivalSpeed="9.53" duration="336.00" routeLength="580.18" waitingTime="269.00" waitingCount="2" stopTime="0.00" timeLoss="289.58" rerouteNo="0" devices="tripinfo_25" vType="DEFAULT_VEHTYPE" speedFactor="0.94" vaporized=""/>
    <tripinfo id="287" depart="287.00" departLane="-gneE29_0" departPos="5.10" departSpeed="0.00" departDelay="0.00" arrival="364.00" arrivalLane="gneE30_0" arrivalPos="100.00" arrivalSpeed="12.27" duration="77.00" routeLength="820.24" waitingTime="0.00" waitingCount="0" stopTime="0.00" timeLoss="11.73" rerouteNo="0" devices="tripinfo_287" vType="DEFAULT_VEHTYPE" speedFactor="0.95" vaporized=""/>
    <tripinfo id="337" depart="337.00" departLane="gneE17_0" departPos="5.10" departSpeed="0.00" departDelay="0.00" arrival="368.00" arrivalLane="gneE18_0" arrivalPos="92.80" arrivalSpeed="4.94" duration="31.00" routeLength="180.60" waitingTime="11.00" waitingCount="1" stopTime="0.00" timeLoss="19.41" rerouteNo="0" devices="tripinfo_337" vType="DEFAULT_VEHTYPE" speedFactor="1.13" vaporized=""/>
    <tripinfo id="9" depart="9.00" departLane="gneE3_0" departPos="5.10" departSpeed="0.00" departDelay="0.00" arrival="378.00" arrivalLane="-gneE0_0" arrivalPos="92.80" arrivalSpeed="11.84" duration="369.00" routeLength="662.35" waitingTime="301.00" waitingCount="1" stopTime="0.00" timeLoss="312.99" rerouteNo="0" devices="tripinfo_9" vType="DEFAULT_VEHTYPE" speedFactor="0.89" vaporized=""/>
    <tripinfo id="290" depart="290.00" departLane="-gneE29_0" departPos="5.10" departSpeed="0.00" departDelay="0.00" arrival="378.00" arrivalLane="gneE33_0" arrivalPos="98.02" arrivalSpeed="15.02" duration="88.00" routeLength="939.12" waitingTime="0.00" waitingCount="0" stopTime="0.00" timeLoss="24.26" rerouteNo="0" devices="tripinfo_290" vType="DEFAULT_VEHTYPE" speedFactor="1.11" vaporized=""/>
    <tripinfo id="323" depart="325.00" departLane="gneE35_0" departPos="5.10" departSpeed="0.00" departDelay="2.00" arrival="386.00" arrivalLane="gneE13_0" arrivalPos="92.80" arrivalSpeed="14.82" duration="61.00" routeLength="789.32" waitingTime="0.00" waitingCount="0" stopTime="0.00" timeLoss="8.80" rerouteNo="0" devices="tripinfo_323" vType="DEFAULT_VEHTYPE" speedFactor="1.11" vaporized=""/>
    <tripinfo id="369" depart="369.00" departLane="-gneE33_0" departPos="5.10" departSpeed="0.00" departDelay="0.00" arrival="396.00" arrivalLane="-gneE32_0" arrivalPos="219.65" arrivalSpeed="14.82" duration="27.00" routeLength="317.90" waitingTime="0.00" waitingCount="0" stopTime="0.00" timeLoss="6.03" rerouteNo="0" devices="tripinfo_369" vType="DEFAULT_VEHTYPE" speedFactor="1.13" vaporized=""/>
    <tripinfo id="10" depart="12.00" departLane="gneE3_0" departPos="5.10" departSpeed="0.00" departDelay="2.00" arrival="406.00" arrivalLane="gneE24_0" arrivalPos="85.60" arrivalSpeed="12.83" duration="394.00" routeLength="660.62" waitingTime="326.00" waitingCount="2" stopTime="0.00" timeLoss="342.82" rerouteNo="0" devices="tripinfo_10" vType="DEFAULT_VEHTYPE" speedFactor="0.94" vaporized=""/>
    <tripinfo id="376" depart="376.00" departLane="-gneE4_0" departPos="5.10" departSpeed="0.00" departDelay="0.00" arrival="409.00" arrivalLane="gneE1_0" arrivalPos="85.60" arrivalSpeed="17.29" duration="33.00" routeLength="380.08" waitingTime="0.00" waitingCount="0" stopTime="0.00" timeLoss="9.16" rerouteNo="0" devices="tripinfo_376" vType="DEFAULT_VEHTYPE" speedFactor="1.26" vaporized=""/>
    <tripinfo id="404" depart="404.00" departLane="gneE11_0" departPos="5.10" departSpeed="0.00" departDelay="0.00" arrival="414.00" arrivalLane="gneE11_0" arrivalPos="92.80" arrivalSpeed="14.34" duration="10.00" routeLength="87.70" waitingTime="0.00" waitingCount="0" stopTime="0.00" timeLoss="3.85" rerouteNo="0" devices="tripinfo_404" vType="DEFAULT_VEHTYPE" speedFactor="1.09" vaporized=""/>
    <tripinfo id="400" depart="400.00" departLane="-gneE3_0" departPos="5.10" departSpeed="0.00" departDelay="0.00" arrival="415.00" arrivalLane="-gneE3_0" arrivalPos="185.60" arrivalSpeed="16.03" duration="15.00" routeLength="180.50" waitingTime="0.00" waitingCount="0" stopTime="0.00" timeLoss="4.11" rerouteNo="0" devices="tripinfo_400" vType="DEFAULT_VEHTYPE" speedFactor="1.19" vaporized=""/>
    <tripinfo id="131" depart="132.00" departLane="-gneE34_0" departPos="5.10" departSpeed="0.00" departDelay="1.00" arrival="439.00" arrivalLane="-gneE2_0" arrivalPos="185.60" arrivalSpeed="8.41" duration="307.00" routeLength="375.13" waitingTime="260.00" waitingCount="2" stopTime="0.00" timeLoss="277.84" rerouteNo="0" devices="tripinfo_131" vType="DEFAULT_VEHTYPE" speedFactor="0.96" vaporized=""/>
    <tripinfo id="160" depart="160.00" departLane="gneE35_0" departPos="5.10" departSpeed="0.00" departDelay="0.00" arrival="452.00" arrivalLane="gneE8_0" arrivalPos="85.60" arrivalSpeed="12.83" duration="292.00" routeLength="776.75" waitingTime="211.00" waitingCount="2" stopTime="0.00" timeLoss="234.37" rerouteNo="0" devices="tripinfo_160" vType="DEFAULT_VEHTYPE" speedFactor="1.00" vaporized=""/>
    <tripinfo id="124" depart="124.00" departLane="gneE2_0" departPos="5.10" departSpeed="0.00" departDelay="0.00" arrival="464.00" arrivalLane="-gneE3_0" arrivalPos="185.60" arrivalSpeed="14.45" duration="340.00" routeLength="465.89" waitingTime="301.00" waitingCount="1" stopTime="0.00" timeLoss="309.02" rerouteNo="0" devices="tripinfo_124" vType="DEFAULT_VEHTYPE" speedFactor="1.09" vaporized=""/>
    <tripinfo id="458" depart="458.00" departLane="gneE18_0" departPos="5.10" departSpeed="0.00" departDelay="0.00" arrival="467.00" arrivalLane="gneE18_0" arrivalPos="92.80" arrivalSpeed="16.03" duration="9.00" routeLength="87.70" waitingTime="0.00" waitingCount="0" stopTime="0.00" timeLoss="3.60" rerouteNo="0" devices="tripinfo_458" vType="DEFAULT_VEHTYPE" speedFactor="1.18" vaporized=""/>
    <tripinfo id="57" depart="58.00" departLane="gneE4_0" departPos="5.10" departSpeed="0.00" departDelay="1.00" arrival="479.00" arrivalLane="gneE34_0" arrivalPos="85.60" arrivalSpeed="13.15" duration="421.00" routeLength="664.18" waitingTime="345.00" waitingCount="3" stopTime="0.00" timeLoss="371.73" rerouteNo="0" devices="tripinfo_57" vType="DEFAULT_VEHTYPE" speedFactor="1.04" vaporized=""/>
    <tripinfo id="410" depart="410.00" departLane="gneE3_0" departPos="5.10" departSpeed="0.00" departDelay="0.00" arrival="489.00" arrivalLane="-gneE38_0" arrivalPos="296.80" arrivalSpeed="12.10" duration="79.00" routeLength="878.51" waitingTime="0.00" waitingCount="0" stopTime="0.00" timeLoss="12.19" rerouteNo="0" devices="tripinfo_410" vType="DEFAULT_VEHTYPE" speedFactor="0.96" vaporized=""/>
    <tripinfo id="121" depart="121.00" departLane="gneE1_0" departPos="5.10" departSpeed="0.00" departDelay="0.00" arrival="492.00" arrivalLane="gneE5_0" arrivalPos="85.60" arrivalSpeed="10.74" duration="371.00" routeLength="374.92" waitingTime="322.00" waitingCount="2" stopTime="0.00" timeLoss="336.67" rerouteNo="0" devices="tripinfo_121" vType="DEFAULT_VEHTYPE" speedFactor="0.83" vaporized=""/>
    <tripinfo id="30" depart="30.00" departLane="gneE9_0" departPos="5.10" departSpeed="0.00" departDelay="0.00" arrival="498.00" arrivalLane="gneE2_0" arrivalPos="185.60" arrivalSpeed="5.35" duration="468.00" routeLength="379.13" waitingTime="408.00" waitingCount="3" stopTime="0.00" timeLoss="438.87" rerouteNo="0" devices="tripinfo_30" vType="DEFAULT_VEHTYPE" speedFactor="0.97" vaporized=""/>
</tripinfos>
